# vtk DataFile Version 4.0
vtk output
ASCII
DATASET POLYDATA
POINTS 591 float
16.6402 88.9556 -138.248 16.6375 88.9602 -138.249 16.6296 88.9741 -138.25 
16.6166 88.997 -138.253 16.5985 89.0288 -138.256 16.5755 89.0694 -138.261 
16.5476 89.1185 -138.266 16.515 89.1762 -138.273 16.4777 89.2421 -138.28 
16.4359 89.3162 -138.288 16.3896 89.3984 -138.297 16.3389 89.4884 -138.307 
16.284 89.5861 -138.317 16.225 89.6915 -138.329 16.1619 89.8042 -138.341 
16.0948 89.9243 -138.354 16.0239 90.0514 -138.368 15.9492 90.1856 -138.382 
15.8709 90.3266 -138.397 15.789 90.4743 -138.413 15.7036 90.6286 -138.429 
15.6149 90.7893 -138.446 15.5229 90.9562 -138.464 15.4277 91.1292 -138.482 
15.3295 91.3082 -138.5 15.2283 91.493 -138.52 15.1242 91.6835 -138.539 
15.0173 91.8794 -138.559 14.9078 92.0808 -138.58 14.7957 92.2874 -138.601 
14.6812 92.499 -138.623 14.5642 92.7156 -138.645 14.445 92.937 -138.667 
14.3236 93.163 -138.689 14.2001 93.3935 -138.712 14.0746 93.6283 -138.736 
13.9473 93.8674 -138.759 13.8182 94.1104 -138.783 13.6873 94.3574 -138.807 
13.5549 94.6081 -138.831 13.4211 94.8625 -138.856 13.2858 95.1203 -138.88 
13.1492 95.3814 -138.905 13.0115 95.6456 -138.93 12.8726 95.9129 -138.955 
12.7328 96.1831 -138.98 12.5921 96.4559 -139.005 12.4505 96.7314 -139.031 
12.3083 97.0093 -139.056 12.1655 97.2894 -139.081 12.0222 97.5717 -139.107 
11.8785 97.856 -139.132 11.7344 98.1421 -139.157 11.5902 98.4299 -139.182 
11.4459 98.7192 -139.207 11.3016 99.01 -139.232 11.1574 99.302 -139.256 
11.0133 99.5951 -139.281 10.8696 99.8891 -139.305 10.7262 100.184 -139.329 
10.5834 100.48 -139.353 10.4411 100.776 -139.377 10.2995 101.072 -139.4 
10.1587 101.369 -139.423 10.0188 101.665 -139.446 9.87989 101.962 -139.468 
9.74204 102.258 -139.49 9.60538 102.554 -139.512 9.47001 102.85 -139.533 
9.33601 103.145 -139.554 9.20349 103.439 -139.574 9.07255 103.732 -139.594 
8.94328 104.024 -139.613 8.81579 104.314 -139.632 8.69018 104.604 -139.65 
8.56654 104.892 -139.668 8.44497 105.178 -139.685 8.32557 105.462 -139.701 
8.20844 105.744 -139.717 8.09368 106.024 -139.732 7.98139 106.302 -139.747 
7.87166 106.577 -139.76 7.7646 106.85 -139.774 7.6603 107.12 -139.786 
7.55887 107.387 -139.797 7.46039 107.652 -139.808 7.36498 107.913 -139.818 
7.27273 108.17 -139.827 7.18373 108.425 -139.836 7.0981 108.675 -139.843 
7.01592 108.922 -139.85 6.93729 109.165 -139.855 6.86232 109.404 -139.86 
6.7911 109.639 -139.864 6.72373 109.869 -139.867 6.66031 110.095 -139.868 
6.60094 110.316 -139.869 6.54572 110.533 -139.869 6.49474 110.744 -139.867 
6.44812 110.951 -139.865 6.40593 111.152 -139.861 6.36829 111.348 -139.857 
6.33529 111.538 -139.851 6.30704 111.723 -139.844 6.28362 111.902 -139.835 
6.26514 112.075 -139.826 6.2517 112.242 -139.815 6.24339 112.402 -139.803 
6.24032 112.556 -139.79 6.24259 112.704 -139.775 6.25029 112.845 -139.76 
6.26352 112.979 -139.742 6.28238 113.106 -139.724 6.30697 113.226 -139.704 
6.33739 113.338 -139.682 6.37374 113.443 -139.659 6.41611 113.541 -139.635 
6.46461 113.631 -139.609 6.51933 113.713 -139.582 6.58037 113.787 -139.553 
6.64784 113.852 -139.523 6.72182 113.91 -139.491 6.80243 113.959 -139.457 
6.88975 113.999 -139.422 6.9839 114.031 -139.385 7.08495 114.054 -139.347 
7.19302 114.067 -139.306 7.30821 114.072 -139.264 7.43061 114.067 -139.221 
7.56032 114.052 -139.176 7.69744 114.028 -139.128 7.84206 113.994 -139.08 
7.9943 113.951 -139.029 8.15415 113.897 -138.976 8.32094 113.835 -138.923 
8.49373 113.765 -138.869 8.67157 113.69 -138.815 8.85353 113.612 -138.762 
9.03865 113.531 -138.712 9.22599 113.45 -138.664 9.4146 113.371 -138.619 
9.60355 113.294 -138.578 9.79205 113.222 -138.543 9.98005 113.154 -138.511 
10.1677 113.088 -138.483 10.3551 113.026 -138.457 10.5423 112.964 -138.433 
10.7295 112.904 -138.41 10.9169 112.843 -138.387 11.1045 112.782 -138.364 
11.2924 112.719 -138.338 11.4802 112.654 -138.31 11.6671 112.588 -138.277 
11.8525 112.522 -138.238 12.0357 112.455 -138.192 12.216 112.388 -138.137 
12.3929 112.321 -138.072 12.5661 112.254 -137.997 12.7358 112.188 -137.914 
12.9021 112.122 -137.823 13.0653 112.056 -137.727 13.2256 111.99 -137.627 
13.3832 111.925 -137.522 13.5387 111.859 -137.415 13.6922 111.793 -137.305 
13.8441 111.727 -137.193 13.9948 111.66 -137.079 14.1446 111.593 -136.965 
14.2938 111.525 -136.85 14.4427 111.456 -136.735 14.5918 111.386 -136.621 
14.7413 111.316 -136.508 14.8916 111.244 -136.397 15.043 111.171 -136.289 
15.1958 111.096 -136.183 15.3504 111.02 -136.081 15.5068 110.943 -135.982 
15.6648 110.864 -135.887 15.8246 110.785 -135.794 15.9858 110.705 -135.704 
16.1486 110.625 -135.617 16.3127 110.544 -135.532 16.4781 110.463 -135.449 
16.6449 110.382 -135.368 16.8127 110.302 -135.289 16.9817 110.222 -135.211 
17.1517 110.143 -135.135 17.3226 110.065 -135.059 17.4944 109.989 -134.985 
17.667 109.913 -134.911 17.8403 109.84 -134.837 18.0142 109.768 -134.764 
18.1887 109.699 -134.69 18.3637 109.631 -134.616 18.5391 109.567 -134.542 
18.7148 109.505 -134.467 18.8908 109.446 -134.391 19.0669 109.39 -134.314 
19.2431 109.337 -134.235 19.4194 109.288 -134.155 19.5956 109.243 -134.073 
19.7717 109.202 -133.989 19.9476 109.165 -133.903 20.1232 109.133 -133.815 
20.2984 109.105 -133.723 20.4732 109.082 -133.629 20.6485 109.064 -133.534 
20.826 109.051 -133.443 21.0062 109.041 -133.357 21.185 109.025 -133.268 
21.3649 109.008 -133.183 21.5475 108.991 -133.103 21.732 108.975 -133.027 
21.9176 108.959 -132.954 22.1033 108.942 -132.881 22.2885 108.924 -132.808 
22.4723 108.903 -132.731 22.6541 108.881 -132.65 22.8342 108.861 -132.566 
23.0127 108.847 -132.476 23.1903 108.83 -132.386 23.3669 108.809 -132.294 
23.5422 108.788 -132.199 23.7159 108.769 -132.102 23.8878 108.754 -132 
24.0575 108.747 -131.894 24.2224 108.749 -131.781 24.376 108.76 -131.653 
24.5238 108.772 -131.519 24.6694 108.784 -131.382 24.8148 108.796 -131.245 
24.9619 108.808 -131.11 25.1125 108.821 -130.979 25.2669 108.834 -130.852 
25.4207 108.849 -130.725 25.5729 108.865 -130.596 25.724 108.881 -130.466 
25.8744 108.899 -130.336 26.0244 108.917 -130.204 26.1744 108.937 -130.073 
26.3249 108.957 -129.943 26.4756 108.978 -129.813 26.6258 108.999 -129.682 
26.7749 109.018 -129.551 26.9221 109.037 -129.416 27.0667 109.053 -129.279 
27.209 109.067 -129.139 27.3503 109.079 -128.998 27.4919 109.091 -128.857 
27.6352 109.102 -128.718 27.7816 109.114 -128.582 27.9316 109.127 -128.451 
28.0842 109.141 -128.322 28.2382 109.157 -128.195 28.3924 109.173 -128.069 
28.5458 109.191 -127.941 28.6975 109.209 -127.812 28.8475 109.229 -127.681 
28.996 109.25 -127.549 29.1433 109.271 -127.416 29.2896 109.293 -127.281 
29.4351 109.316 -127.146 29.58 109.339 -127.009 29.7246 109.362 -126.873 
29.869 109.385 -126.736 30.0136 109.408 -126.6 30.1584 109.431 -126.463 
30.3038 109.453 -126.328 30.4494 109.475 -126.192 30.5945 109.495 -126.056 
30.7385 109.514 -125.918 30.8807 109.53 -125.778 31.0203 109.543 -125.636 
31.1557 109.556 -125.489 31.2927 109.571 -125.344 31.4396 109.59 -125.21 
31.5873 109.616 -125.077 31.734 109.647 -124.945 31.8793 109.68 -124.811 
32.0231 109.711 -124.675 32.165 109.738 -124.537 32.3054 109.759 -124.396 
32.4446 109.779 -124.254 32.5833 109.798 -124.111 32.722 109.821 -123.968 
32.8609 109.848 -123.826 32.999 109.877 -123.684 33.1352 109.906 -123.54 
33.2684 109.931 -123.393 33.3975 109.95 -123.242 33.5239 109.964 -123.087 
33.66 109.987 -122.943 33.8011 110.012 -122.803 33.9413 110.033 -122.661 
34.0804 110.052 -122.519 34.2187 110.072 -122.376 34.3565 110.097 -122.233 
34.4944 110.126 -122.091 34.6331 110.156 -121.95 34.7733 110.184 -121.81 
34.9157 110.208 -121.672 35.0601 110.225 -121.534 35.2052 110.239 -121.397 
35.3494 110.252 -121.259 35.4917 110.266 -121.119 35.6325 110.278 -120.977 
35.7733 110.287 -120.835 35.9155 110.288 -120.695 36.0595 110.279 -120.556 
36.2044 110.26 -120.419 36.3493 110.231 -120.284 36.4923 110.193 -120.149 
36.6306 110.15 -120.011 36.7619 110.105 -119.867 36.8885 110.056 -119.72 
37.0157 110.001 -119.575 37.1445 109.938 -119.436 37.2695 109.869 -119.296 
37.3944 109.799 -119.156 37.5218 109.722 -119.022 37.652 109.642 -118.893 
37.7844 109.571 -118.762 37.9182 109.515 -118.624 38.053 109.471 -118.482 
38.1897 109.428 -118.343 38.329 109.376 -118.209 38.4719 109.315 -118.083 
38.6189 109.253 -117.962 38.7674 109.189 -117.844 38.914 109.122 -117.726 
39.0559 109.05 -117.605 39.1935 108.973 -117.482 39.3288 108.893 -117.358 
39.4639 108.81 -117.236 39.6007 108.726 -117.116 39.742 108.647 -116.998 
39.8878 108.576 -116.881 40.034 108.504 -116.765 40.1771 108.427 -116.648 
40.3192 108.351 -116.53 40.4642 108.286 -116.408 40.6111 108.222 -116.288 
40.7588 108.154 -116.171 40.9074 108.083 -116.058 41.057 108.01 -115.947 
41.2077 107.936 -115.838 41.3597 107.861 -115.732 41.5129 107.784 -115.629 
41.6675 107.7 -115.533 41.8252 107.627 -115.437 41.988 107.588 -115.33 
42.1543 107.57 -115.217 42.3227 107.555 -115.105 42.4916 107.529 -115 
42.6602 107.483 -114.903 42.8286 107.426 -114.811 42.9971 107.363 -114.72 
43.1658 107.302 -114.629 43.3355 107.244 -114.537 43.5069 107.19 -114.446 
43.6806 107.142 -114.358 43.8574 107.101 -114.274 44.0379 107.067 -114.196 
44.2229 107.042 -114.126 44.4114 107.024 -114.061 44.5987 107.007 -113.992 
44.7849 106.988 -113.921 44.972 106.972 -113.853 45.1612 106.959 -113.79 
45.3519 106.948 -113.731 45.543 106.938 -113.671 45.7334 106.927 -113.61 
45.9223 106.912 -113.545 46.1092 106.89 -113.477 46.2934 106.856 -113.407 
46.4749 106.816 -113.333 46.6546 106.784 -113.251 46.8348 106.76 -113.166 
47.0181 106.735 -113.09 47.2067 106.699 -113.033 47.3908 106.63 -113 
47.5686 106.542 -112.972 47.7464 106.458 -112.932 47.9233 106.376 -112.889 
48.0979 106.287 -112.848 48.269 106.19 -112.813 48.4359 106.088 -112.77 
48.602 105.988 -112.721 48.772 105.894 -112.673 48.9473 105.806 -112.632 
49.1202 105.711 -112.599 49.2907 105.612 -112.565 49.4605 105.516 -112.521 
49.6274 105.416 -112.474 49.787 105.303 -112.434 49.94 105.179 -112.398 
50.0915 105.053 -112.36 50.2464 104.932 -112.325 50.4084 104.819 -112.294 
50.572 104.707 -112.266 50.7289 104.586 -112.241 50.883 104.462 -112.21 
51.0359 104.339 -112.171 51.1826 104.208 -112.133 51.3271 104.073 -112.104 
51.4753 103.94 -112.082 51.6187 103.803 -112.06 51.7577 103.66 -112.04 
51.8932 103.514 -112.021 52.026 103.365 -112.004 52.1569 103.214 -111.99 
52.2866 103.062 -111.973 52.4165 102.913 -111.946 52.5493 102.766 -111.917 
52.6824 102.619 -111.889 52.8125 102.47 -111.861 52.9369 102.315 -111.836 
53.0573 102.157 -111.813 53.1771 101.998 -111.794 53.2984 101.839 -111.781 
53.4205 101.68 -111.773 53.542 101.521 -111.767 53.662 101.36 -111.762 
53.7793 101.198 -111.758 53.8926 101.033 -111.753 54.0009 100.865 -111.745 
54.1031 100.694 -111.734 54.2006 100.52 -111.718 54.2979 100.346 -111.697 
54.3928 100.172 -111.671 54.482 99.9955 -111.641 54.5627 99.8148 -111.612 
54.6413 99.6336 -111.581 54.7275 99.4594 -111.533 54.8085 99.3003 -111.443 
54.8848 99.1406 -111.349 54.958 98.9768 -111.26 55.0276 98.8113 -111.172 
55.0926 98.6466 -111.079 55.1528 98.4837 -110.98 55.2093 98.3181 -110.882 
55.2634 98.145 -110.798 55.3147 97.9726 -110.711 55.3617 97.8088 -110.606 
55.403 97.6442 -110.5 55.4413 97.4736 -110.402 55.4841 97.2988 -110.315 
55.5373 97.1229 -110.235 55.595 96.9527 -110.147 55.6493 96.7899 -110.044 
55.7005 96.6175 -109.957 55.7479 96.4461 -109.865 55.787 96.2832 -109.756 
55.8194 96.1241 -109.639 55.8544 95.9591 -109.531 55.8934 95.7856 -109.44 
55.93 95.6074 -109.355 55.958 95.4285 -109.27 55.9803 95.2507 -109.181 
56.006 95.0743 -109.09 56.0416 94.899 -109.001 56.084 94.7239 -108.914 
56.1277 94.5475 -108.83 56.1695 94.3692 -108.749 56.2127 94.1906 -108.67 
56.2621 94.0138 -108.59 56.3169 93.8389 -108.51 56.363 93.6616 -108.43 
56.4007 93.4816 -108.351 56.4408 93.3012 -108.275 56.489 93.1219 -108.2 
56.5445 92.9442 -108.127 56.6056 92.7682 -108.053 56.6719 92.5937 -107.98 
56.7465 92.4193 -107.918 56.8303 92.2446 -107.869 56.9207 92.0706 -107.828 
57.0147 91.8983 -107.786 57.1117 91.7291 -107.74 57.2155 91.5644 -107.694 
57.329 91.405 -107.653 57.4362 91.2432 -107.606 57.5335 91.0773 -107.55 
57.6319 90.9127 -107.491 57.7361 90.7514 -107.432 57.8469 90.5936 -107.379 
57.9651 90.439 -107.334 58.0905 90.2874 -107.299 58.2192 90.1365 -107.272 
58.3465 89.9833 -107.251 58.4676 89.825 -107.23 58.581 89.6613 -107.208 
58.6979 89.5009 -107.194 58.8235 89.3474 -107.189 58.9545 89.1979 -107.19 
59.0875 89.0491 -107.192 59.219 88.8977 -107.192 59.3457 88.7406 -107.186 
59.4641 88.5747 -107.169 59.5793 88.4103 -107.171 59.6827 88.2414 -107.175 
59.7733 88.0628 -107.158 59.8663 87.8876 -107.151 59.9671 87.7163 -107.156 
60.0715 87.5457 -107.166 60.1661 87.3694 -107.166 60.2639 87.1951 -107.159 
60.3678 87.0242 -107.151 60.4729 86.854 -107.141 60.574 86.6818 -107.13 
60.6669 86.505 -107.12 60.7581 86.327 -107.111 60.8539 86.1514 -107.103 
60.9531 85.978 -107.093 61.0545 85.8064 -107.078 61.1564 85.6347 -107.046 
61.2601 85.4638 -107.003 61.3688 85.2965 -106.965 61.4854 85.1356 -106.947 
61.6128 84.9838 -106.967 61.74 84.8333 -107.008 61.8338 84.6584 -106.985 
61.9367 84.4887 -106.955 62.0436 84.3213 -106.93 62.1451 84.1498 -106.918 
62.2348 83.972 -106.932 62.313 83.7899 -106.957 62.4008 83.6102 -106.967 
62.4837 83.4288 -106.981 62.5559 83.2434 -107 62.622 83.0556 -107.022 
62.6868 82.867 -107.043 62.7551 82.6794 -107.056 62.8299 82.4939 -107.062 
62.9087 82.3097 -107.063 62.9878 82.1258 -107.066 63.0635 81.9412 -107.076 
63.1335 81.7553 -107.097 63.2029 81.5696 -107.125 63.2791 81.3862 -107.152 
63.3634 81.2056 -107.173 63.452 81.0263 -107.183 63.5398 80.8466 -107.18 
63.6126 80.6602 -107.184 63.6693 80.4686 -107.2 63.7182 80.2752 -107.221 
63.7701 80.0829 -107.236 63.8343 79.8945 -107.238 63.9097 79.7094 -107.229 
63.9883 79.5249 -107.221 64.0624 79.3388 -107.225 64.1347 79.1545 -107.253 
64.2194 78.9775 -107.291 64.3029 78.7966 -107.308 64.3855 78.6161 -107.333 
64.4771 78.4406 -107.363 64.5763 78.2756 -107.421 64.6792 78.1268 -107.507 
64.7843 77.9943 -107.614 64.8952 77.8675 -107.723 64.9976 77.7264 -107.819 
65.0811 77.5675 -107.909 65.1724 77.4245 -108.016 65.2729 77.2847 -108.12 
65.3832 77.1466 -108.216 65.5042 77.0106 -108.3 65.6369 76.8766 -108.369 
65.7706 76.7373 -108.422 65.8736 76.5728 -108.469 65.9697 76.4021 -108.512 
66.0647 76.2355 -108.567 66.176 76.078 -108.618 66.3006 75.9225 -108.647 
66.4316 75.7767 -108.689 66.5453 75.6305 -108.763 66.6463 75.471 -108.827 
66.7679 75.3258 -108.89 66.8717 75.1786 -108.975 66.991 75.0404 -109.059 
67.1179 74.8923 -109.112 67.254 74.7491 -109.142 67.4031 74.6173 -109.155 
67.5703 74.4649 -109.148 67.7503 74.2897 -109.123 67.9344 74.1028 -109.086 
68.114 73.9148 -109.041 68.2804 73.7367 -108.993 68.4249 73.5793 -108.948 
68.5389 73.4535 -108.909 68.6137 73.37 -108.882 68.6405 73.3398 -108.872 

LINES 1 592
591 0 1 2 3 4 5 6 7 8 9 10 11 12 13 14 15 16 17 18 19 20 21 22 23 24 25 26 27 28 29 30 31 32 33 34 35 36 37 38 39 40 41 42 43 44 45 46 47 48 49 50 51 52 53 54 55 56 57 58 59 60 61 62 63 64 65 66 67 68 69 70 71 72 73 74 75 76 77 78 79 80 81 82 83 84 85 86 87 88 89 90 91 92 93 94 95 96 97 98 99 100 101 102 103 104 105 106 107 108 109 110 111 112 113 114 115 116 117 118 119 120 121 122 123 124 125 126 127 128 129 130 131 132 133 134 135 136 137 138 139 140 141 142 143 144 145 146 147 148 149 150 151 152 153 154 155 156 157 158 159 160 161 162 163 164 165 166 167 168 169 170 171 172 173 174 175 176 177 178 179 180 181 182 183 184 185 186 187 188 189 190 191 192 193 194 195 196 197 198 199 200 201 202 203 204 205 206 207 208 209 210 211 212 213 214 215 216 217 218 219 220 221 222 223 224 225 226 227 228 229 230 231 232 233 234 235 236 237 238 239 240 241 242 243 244 245 246 247 248 249 250 251 252 253 254 255 256 257 258 259 260 261 262 263 264 265 266 267 268 269 270 271 272 273 274 275 276 277 278 279 280 281 282 283 284 285 286 287 288 289 290 291 292 293 294 295 296 297 298 299 300 301 302 303 304 305 306 307 308 309 310 311 312 313 314 315 316 317 318 319 320 321 322 323 324 325 326 327 328 329 330 331 332 333 334 335 336 337 338 339 340 341 342 343 344 345 346 347 348 349 350 351 352 353 354 355 356 357 358 359 360 361 362 363 364 365 366 367 368 369 370 371 372 373 374 375 376 377 378 379 380 381 382 383 384 385 386 387 388 389 390 391 392 393 394 395 396 397 398 399 400 401 402 403 404 405 406 407 408 409 410 411 412 413 414 415 416 417 418 419 420 421 422 423 424 425 426 427 428 429 430 431 432 433 434 435 436 437 438 439 440 441 442 443 444 445 446 447 448 449 450 451 452 453 454 455 456 457 458 459 460 461 462 463 464 465 466 467 468 469 470 471 472 473 474 475 476 477 478 479 480 481 482 483 484 485 486 487 488 489 490 491 492 493 494 495 496 497 498 499 500 501 502 503 504 505 506 507 508 509 510 511 512 513 514 515 516 517 518 519 520 521 522 523 524 525 526 527 528 529 530 531 532 533 534 535 536 537 538 539 540 541 542 543 544 545 546 547 548 549 550 551 552 553 554 555 556 557 558 559 560 561 562 563 564 565 566 567 568 569 570 571 572 573 574 575 576 577 578 579 580 581 582 583 584 585 586 587 588 589 590 

POINT_DATA 591
TEXTURE_COORDINATES TCoords 2 float
0 0 0.00169492 0 0.00338983 0 0.00508475 0 0.00677966 
0 0.00847458 0 0.0101695 0 0.0118644 0 0.0135593 0 
0.0152542 0 0.0169492 0 0.0186441 0 0.020339 0 0.0220339 
0 0.0237288 0 0.0254237 0 0.0271186 0 0.0288136 0 
0.0305085 0 0.0322034 0 0.0338983 0 0.0355932 0 0.0372881 
0 0.0389831 0 0.040678 0 0.0423729 0 0.0440678 0 
0.0457627 0 0.0474576 0 0.0491525 0 0.0508475 0 0.0525424 
0 0.0542373 0 0.0559322 0 0.0576271 0 0.059322 0 
0.061017 0 0.0627119 0 0.0644068 0 0.0661017 0 0.0677966 
0 0.0694915 0 0.0711864 0 0.0728814 0 0.0745763 0 
0.0762712 0 0.0779661 0 0.079661 0 0.0813559 0 0.0830508 
0 0.0847458 0 0.0864407 0 0.0881356 0 0.0898305 0 
0.0915254 0 0.0932203 0 0.0949153 0 0.0966102 0 0.0983051 
0 0.1 0 0.101695 0 0.10339 0 0.105085 0 
0.10678 0 0.108475 0 0.110169 0 0.111864 0 0.113559 
0 0.115254 0 0.116949 0 0.118644 0 0.120339 0 
0.122034 0 0.123729 0 0.125424 0 0.127119 0 0.128814 
0 0.130508 0 0.132203 0 0.133898 0 0.135593 0 
0.137288 0 0.138983 0 0.140678 0 0.142373 0 0.144068 
0 0.145763 0 0.147458 0 0.149153 0 0.150847 0 
0.152542 0 0.154237 0 0.155932 0 0.157627 0 0.159322 
0 0.161017 0 0.162712 0 0.164407 0 0.166102 0 
0.167797 0 0.169492 0 0.171186 0 0.172881 0 0.174576 
0 0.176271 0 0.177966 0 0.179661 0 0.181356 0 
0.183051 0 0.184746 0 0.186441 0 0.188136 0 0.189831 
0 0.191525 0 0.19322 0 0.194915 0 0.19661 0 
0.198305 0 0.2 0 0.201695 0 0.20339 0 0.205085 
0 0.20678 0 0.208475 0 0.210169 0 0.211864 0 
0.213559 0 0.215254 0 0.216949 0 0.218644 0 0.220339 
0 0.222034 0 0.223729 0 0.225424 0 0.227119 0 
0.228814 0 0.230508 0 0.232203 0 0.233898 0 0.235593 
0 0.237288 0 0.238983 0 0.240678 0 0.242373 0 
0.244068 0 0.245763 0 0.247458 0 0.249153 0 0.250847 
0 0.252542 0 0.254237 0 0.255932 0 0.257627 0 
0.259322 0 0.261017 0 0.262712 0 0.264407 0 0.266102 
0 0.267797 0 0.269492 0 0.271186 0 0.272881 0 
0.274576 0 0.276271 0 0.277966 0 0.279661 0 0.281356 
0 0.283051 0 0.284746 0 0.286441 0 0.288136 0 
0.289831 0 0.291525 0 0.29322 0 0.294915 0 0.29661 
0 0.298305 0 0.3 0 0.301695 0 0.30339 0 
0.305085 0 0.30678 0 0.308475 0 0.310169 0 0.311864 
0 0.313559 0 0.315254 0 0.316949 0 0.318644 0 
0.320339 0 0.322034 0 0.323729 0 0.325424 0 0.327119 
0 0.328814 0 0.330508 0 0.332203 0 0.333898 0 
0.335593 0 0.337288 0 0.338983 0 0.340678 0 0.342373 
0 0.344068 0 0.345763 0 0.347458 0 0.349153 0 
0.350847 0 0.352542 0 0.354237 0 0.355932 0 0.357627 
0 0.359322 0 0.361017 0 0.362712 0 0.364407 0 
0.366102 0 0.367797 0 0.369492 0 0.371186 0 0.372881 
0 0.374576 0 0.376271 0 0.377966 0 0.379661 0 
0.381356 0 0.383051 0 0.384746 0 0.386441 0 0.388136 
0 0.38983 0 0.391525 0 0.39322 0 0.394915 0 
0.39661 0 0.398305 0 0.4 0 0.401695 0 0.40339 
0 0.405085 0 0.40678 0 0.408475 0 0.410169 0 
0.411864 0 0.413559 0 0.415254 0 0.416949 0 0.418644 
0 0.420339 0 0.422034 0 0.423729 0 0.425424 0 
0.427119 0 0.428814 0 0.430508 0 0.432203 0 0.433898 
0 0.435593 0 0.437288 0 0.438983 0 0.440678 0 
0.442373 0 0.444068 0 0.445763 0 0.447458 0 0.449153 
0 0.450847 0 0.452542 0 0.454237 0 0.455932 0 
0.457627 0 0.459322 0 0.461017 0 0.462712 0 0.464407 
0 0.466102 0 0.467797 0 0.469492 0 0.471186 0 
0.472881 0 0.474576 0 0.476271 0 0.477966 0 0.479661 
0 0.481356 0 0.483051 0 0.484746 0 0.486441 0 
0.488136 0 0.48983 0 0.491525 0 0.49322 0 0.494915 
0 0.49661 0 0.498305 0 0.5 0 0.501695 0 
0.50339 0 0.505085 0 0.50678 0 0.508475 0 0.51017 
0 0.511864 0 0.513559 0 0.515254 0 0.516949 0 
0.518644 0 0.520339 0 0.522034 0 0.523729 0 0.525424 
0 0.527119 0 0.528814 0 0.530508 0 0.532203 0 
0.533898 0 0.535593 0 0.537288 0 0.538983 0 0.540678 
0 0.542373 0 0.544068 0 0.545763 0 0.547458 0 
0.549153 0 0.550847 0 0.552542 0 0.554237 0 0.555932 
0 0.557627 0 0.559322 0 0.561017 0 0.562712 0 
0.564407 0 0.566102 0 0.567797 0 0.569492 0 0.571186 
0 0.572881 0 0.574576 0 0.576271 0 0.577966 0 
0.579661 0 0.581356 0 0.583051 0 0.584746 0 0.586441 
0 0.588136 0 0.589831 0 0.591525 0 0.59322 0 
0.594915 0 0.59661 0 0.598305 0 0.6 0 0.601695 
0 0.60339 0 0.605085 0 0.60678 0 0.608475 0 
0.610169 0 0.611864 0 0.613559 0 0.615254 0 0.616949 
0 0.618644 0 0.620339 0 0.622034 0 0.623729 0 
0.625424 0 0.627119 0 0.628814 0 0.630508 0 0.632203 
0 0.633898 0 0.635593 0 0.637288 0 0.638983 0 
0.640678 0 0.642373 0 0.644068 0 0.645763 0 0.647458 
0 0.649153 0 0.650847 0 0.652542 0 0.654237 0 
0.655932 0 0.657627 0 0.659322 0 0.661017 0 0.662712 
0 0.664407 0 0.666102 0 0.667797 0 0.669492 0 
0.671186 0 0.672881 0 0.674576 0 0.676271 0 0.677966 
0 0.679661 0 0.681356 0 0.683051 0 0.684746 0 
0.686441 0 0.688136 0 0.68983 0 0.691525 0 0.69322 
0 0.694915 0 0.69661 0 0.698305 0 0.7 0 
0.701695 0 0.70339 0 0.705085 0 0.70678 0 0.708475 
0 0.710169 0 0.711864 0 0.713559 0 0.715254 0 
0.716949 0 0.718644 0 0.720339 0 0.722034 0 0.723729 
0 0.725424 0 0.727119 0 0.728814 0 0.730508 0 
0.732203 0 0.733898 0 0.735593 0 0.737288 0 0.738983 
0 0.740678 0 0.742373 0 0.744068 0 0.745763 0 
0.747458 0 0.749153 0 0.750847 0 0.752542 0 0.754237 
0 0.755932 0 0.757627 0 0.759322 0 0.761017 0 
0.762712 0 0.764407 0 0.766102 0 0.767797 0 0.769492 
0 0.771186 0 0.772881 0 0.774576 0 0.776271 0 
0.777966 0 0.779661 0 0.781356 0 0.783051 0 0.784746 
0 0.786441 0 0.788136 0 0.789831 0 0.791525 0 
0.79322 0 0.794915 0 0.79661 0 0.798305 0 0.8 
0 0.801695 0 0.80339 0 0.805085 0 0.80678 0 
0.808475 0 0.81017 0 0.811864 0 0.813559 0 0.815254 
0 0.816949 0 0.818644 0 0.820339 0 0.822034 0 
0.823729 0 0.825424 0 0.827119 0 0.828814 0 0.830508 
0 0.832203 0 0.833898 0 0.835593 0 0.837288 0 
0.838983 0 0.840678 0 0.842373 0 0.844068 0 0.845763 
0 0.847458 0 0.849153 0 0.850847 0 0.852542 0 
0.854237 0 0.855932 0 0.857627 0 0.859322 0 0.861017 
0 0.862712 0 0.864407 0 0.866102 0 0.867797 0 
0.869492 0 0.871186 0 0.872881 0 0.874576 0 0.876271 
0 0.877966 0 0.879661 0 0.881356 0 0.883051 0 
0.884746 0 0.886441 0 0.888136 0 0.889831 0 0.891525 
0 0.89322 0 0.894915 0 0.89661 0 0.898305 0 
0.9 0 0.901695 0 0.90339 0 0.905085 0 0.90678 
0 0.908475 0 0.910169 0 0.911864 0 0.913559 0 
0.915254 0 0.916949 0 0.918644 0 0.920339 0 0.922034 
0 0.923729 0 0.925424 0 0.927119 0 0.928814 0 
0.930508 0 0.932203 0 0.933898 0 0.935593 0 0.937288 
0 0.938983 0 0.940678 0 0.942373 0 0.944068 0 
0.945763 0 0.947458 0 0.949153 0 0.950847 0 0.952542 
0 0.954237 0 0.955932 0 0.957627 0 0.959322 0 
0.961017 0 0.962712 0 0.964407 0 0.966102 0 0.967797 
0 0.969492 0 0.971186 0 0.972881 0 0.974576 0 
0.976271 0 0.977966 0 0.979661 0 0.981356 0 0.983051 
0 0.984746 0 0.986441 0 0.988136 0 0.98983 0 
0.991525 0 0.99322 0 0.994915 0 0.99661 0 0.998305 
0 1 0 
FIELD FieldData 1
MaximumInscribedSphereRadius 1 591 double
26.4421 26.4421 26.4421 26.4421 26.4421 26.4421 26.4421 26.4421 26.4421 
26.4421 26.4421 26.4421 26.4421 26.4421 26.4421 26.4421 26.4421 26.4421 
26.4421 26.4421 26.4421 26.4421 26.4421 26.4421 26.4421 26.4421 26.4421 
26.4421 26.4421 26.4421 26.4421 26.4421 26.4421 26.4421 26.4421 26.4421 
26.4421 26.4421 26.4421 26.4421 26.4421 26.4421 26.4421 26.4421 26.4421 
26.4421 26.4421 26.4421 26.4421 26.4421 26.4421 26.4421 26.4421 26.4421 
26.4421 26.4421 26.4421 26.4421 26.4421 26.4421 26.4421 26.4421 26.4421 
26.4421 26.4421 26.4421 26.4421 26.4421 26.4421 26.4421 26.4421 26.4421 
26.4421 26.4421 26.4421 26.4421 26.4421 26.4421 26.4421 26.4421 26.4421 
26.4421 26.4421 26.4421 26.4421 26.4421 26.4421 26.4421 26.4421 26.4421 
26.4421 26.4421 26.4421 26.4421 26.4421 26.4421 26.4421 26.4421 26.4421 
26.4421 26.4421 26.4421 26.4421 26.4421 26.4421 26.4421 26.4421 26.4421 
26.4421 26.4421 26.4421 26.4421 26.4421 26.4421 26.4421 26.4421 26.4421 
26.4421 26.4421 26.4421 26.4421 26.4421 26.4421 26.4421 26.4421 26.4421 
26.4421 26.4421 26.4421 26.4421 26.4421 26.4421 26.4421 26.3407 26.2176 
26.0945 25.9713 25.8482 25.7251 25.602 25.4789 25.3558 25.2415 25.1272 
25.013 24.8987 24.7845 24.6702 24.556 24.4418 24.3308 24.2205 24.1102 
23.9999 23.8897 23.7794 23.6631 23.5428 23.4225 23.3022 23.1836 23.0704 
22.9572 22.844 22.7309 22.6177 22.5045 22.3913 22.2781 22.1649 22.0517 
21.9385 21.8253 21.7121 21.5989 21.5089 21.4238 21.3387 21.2537 21.1686 
21.0835 20.9985 20.9134 20.8283 20.7432 20.6582 20.5731 20.488 20.4029 
20.3179 20.2328 20.1477 20.0626 19.9776 19.8925 19.8074 19.7224 19.6373 
19.5522 19.4671 19.3821 19.297 19.2119 19.1268 19.0418 18.9496 18.8476 
18.7456 18.6442 18.5397 18.442 18.3482 18.2545 18.1607 18.067 17.9732 
17.88 17.7886 17.6971 17.6027 17.5067 17.4108 17.3149 17.219 17.123 
17.0233 16.9072 16.7854 16.6568 16.5281 16.3995 16.2708 16.1423 16.0207 
15.9009 15.781 15.6612 15.5414 15.4216 15.3018 15.1854 15.0728 14.9601 
14.8475 14.7349 14.6235 14.5136 14.4037 14.2939 14.184 14.0786 13.9832 
13.8878 13.7923 13.6969 13.6023 13.5179 13.4336 13.3493 13.265 13.1807 
13.0963 13.012 12.9277 12.8434 12.7591 12.6747 12.6021 12.5369 12.4717 
12.4065 12.3413 12.2772 12.2152 12.1542 12.0984 12.0429 11.9874 11.9318 
11.8763 11.8247 11.7771 11.7294 11.6818 11.6351 11.5965 11.5579 11.5193 
11.4807 11.4421 11.409 11.381 11.3549 11.3345 11.3142 11.2938 11.2796 
11.2717 11.2637 11.2558 11.245 11.23 11.215 11.2 11.1842 11.1682 
11.1521 11.1311 11.103 11.0749 11.0369 10.9941 10.9513 10.9039 10.8531 
10.7995 10.7407 10.6808 10.6225 10.5623 10.5007 10.4418 10.3956 10.3552 
10.3148 10.2706 10.2237 10.1748 10.1259 10.077 10.0316 9.98727 9.9429 
9.89853 9.85416 9.81725 9.78177 9.74629 9.71463 9.68684 9.66598 9.64727 
9.63048 9.6137 9.59691 9.58012 9.56552 9.55227 9.53784 9.52792 9.52665 
9.52538 9.52411 9.52177 9.51789 9.51402 9.51028 9.51805 9.52581 9.53358 
9.54134 9.54911 9.55687 9.56439 9.57009 9.57929 9.58876 9.598 9.60473 
9.61145 9.61818 9.63202 9.64731 9.6626 9.67852 9.69567 9.71691 9.73914 
9.76136 9.76805 9.74452 9.70895 9.6729 9.63685 9.60082 9.56549 9.52989 
9.49425 9.45895 9.427 9.3944 9.36181 9.3286 9.29473 9.25594 9.21768 
9.18334 9.149 9.11966 9.09115 9.06162 9.03019 8.99868 8.96686 8.93315 
8.9018 8.87241 8.84303 8.81364 8.78425 8.75747 8.73773 8.71695 8.70179 
8.68663 8.67146 8.65833 8.64577 8.63602 8.63434 8.63265 8.63096 8.62928 
8.62759 8.62591 8.62422 8.62346 8.62478 8.62217 8.61955 8.61694 8.61317 
8.60929 8.59677 8.55799 8.52003 8.48209 8.44415 8.40621 8.36984 8.33348 
8.30219 8.27297 8.24074 8.2111 8.18495 8.15879 8.12896 8.09857 8.06144 
8.0233 7.98698 7.95618 7.92538 7.89464 7.86395 7.83326 7.80615 7.78117 
7.75628 7.73498 7.71368 7.69241 7.67141 7.65041 7.63036 7.61603 7.59831 
7.57903 7.56003 7.54146 7.52289 7.50416 7.48271 7.45713 7.42509 7.39305 
7.36103 7.32905 7.29707 7.26171 7.21854 7.17346 7.13191 7.09227 7.05262 
7.01298 6.97136 6.92969 6.88802 6.84635 6.80368 6.76319 6.72441 6.68564 
6.64686 6.60809 6.56931 6.5317 6.49795 6.44606 6.38699 6.32791 6.26937 
6.21167 6.15631 6.11129 6.0668 6.0223 5.9778 5.93783 5.90376 5.87121 
5.83866 5.80841 5.79018 5.77237 5.75455 5.73673 5.71889 5.68834 5.669 
5.65098 5.63296 5.61494 5.58265 5.52862 5.46921 5.41291 5.35861 5.30432 
5.25002 5.19736 5.15985 5.12235 5.08484 5.04733 5.01711 4.9877 4.96058 
4.93552 4.91047 4.8811 4.8382 4.79036 4.74143 4.69249 4.64045 4.58699 
4.53353 4.48121 4.42899 4.36923 4.30144 4.22869 4.15334 4.07373 3.99371 
3.91258 3.83145 3.7483 3.6625 3.57774 3.49532 3.41289 3.33046 3.24874 
3.17358 3.08316 2.99834 2.91678 2.83342 2.74984 2.66627 2.58481 2.4934 
2.39466 2.29032 2.17549 2.05428 1.93306 1.79674 1.7887 1.7887 1.7887 
1.7887 1.7887 1.7887 1.7887 1.7887 1.7887 
